LAMMPS data file for Nanoparticles

1031 atoms
1 atom types
  0.0000 180.0000 xlo xhi
  0.0000 180.0000 ylo yhi
  0.0000 180.0000 zlo zhi

Masses

1 196.96655  # Au



Atoms

1	1	 85.93814450	 72.99734300	 81.06954800
2	1	 88.86661750	 72.83898600	 80.86203000
3	1	 91.65194850	 73.11495900	 80.94805700
4	1	 80.25024350	 77.59883200	 80.77982200
5	1	 81.78173250	 75.36428100	 80.74259600
6	1	 84.33446750	 75.43958100	 80.86512200
7	1	 83.11124350	 77.95286400	 80.73924400
8	1	 87.22934550	 75.30048200	 80.74370300
9	1	 86.03113550	 77.79635700	 80.83916200
10	1	 88.64626350	 77.55529300	 80.96246600
11	1	 90.15399050	 75.28889700	 80.92683700
12	1	 91.62160950	 77.37268200	 80.76888600
13	1	 93.31979850	 75.28013300	 80.74466400
14	1	 96.21712850	 75.13179800	 81.08131800
15	1	 94.83756350	 77.43272400	 80.61712300
16	1	 97.79217250	 77.18563400	 80.97801500
17	1	 78.95301650	 79.76361500	 81.03399400
18	1	 81.52071550	 80.04332900	 80.59703400
19	1	 84.73318950	 80.11533200	 80.77483100
20	1	 87.40011250	 80.07356900	 80.97906100
21	1	 93.11383150	 79.59420800	 80.79610700
22	1	 90.19963950	 79.67878500	 80.71531500
23	1	 96.42409150	 79.48751800	 80.70196600
24	1	 97.38119850	 81.78736800	 80.54937300
25	1	 98.97865150	 79.50928300	 81.01394600
26	1	100.13320550	 82.00506500	 80.56388200
27	1	 76.70609550	 84.84035400	 80.87928700
28	1	 80.37252450	 82.42175300	 80.67630200
29	1	 77.72426450	 81.98747200	 80.90897100
30	1	 79.27675050	 84.89148500	 80.59610500
31	1	 83.11792850	 82.46136300	 80.67275300
32	1	 82.06785850	 85.01641600	 80.97107000
33	1	 84.63288050	 84.96895500	 80.68802000
34	1	 86.19139250	 82.48425600	 80.58592200
35	1	 87.48563350	 84.90467000	 80.56336000
36	1	 89.11706250	 82.02647100	 80.39104400
37	1	 92.10398350	 82.11275300	 80.70180800
38	1	 90.65291650	 84.60941100	 80.68072900
39	1	 93.34372650	 84.63965000	 81.08156400
40	1	 94.57853850	 82.03939500	 80.78798000
41	1	 95.88078950	 84.56371200	 80.84919100
42	1	 98.83459350	 84.42059400	 80.53124900
43	1	102.11716550	 84.06377100	 80.95450200
44	1	 75.21176950	 87.15676000	 80.97604500
45	1	 73.98405550	 89.41793100	 80.80426900
46	1	 76.68585450	 89.36614400	 80.63097100
47	1	 77.93016350	 87.17068500	 80.87996600
48	1	 79.50128250	 89.68363400	 80.60739600
49	1	 80.74368650	 87.37554100	 80.80597400
50	1	 82.15379450	 90.12332600	 81.16698700
51	1	 85.08804950	 89.66540200	 80.95196800
52	1	 87.74873150	 89.32444200	 80.64004300
53	1	 86.13802650	 87.13838300	 80.82942300
54	1	 89.27308350	 87.11922500	 80.59338300
55	1	 90.62493950	 89.67347100	 80.61632000
56	1	 91.90585950	 87.00714300	 81.07914400
57	1	 93.29997650	 89.20904000	 80.76417900
58	1	 97.49377550	 86.76175100	 80.61596700
59	1	 96.08231750	 89.30237300	 80.73850500
60	1	 94.75369450	 86.91734500	 81.09441000
61	1	100.72861550	 86.51420400	 80.55596400
62	1	 99.05140950	 89.20724000	 80.48668300
63	1	102.17062550	 88.96198900	 80.47282200
64	1	104.89592550	 88.94483800	 80.78925200
65	1	103.60261550	 86.62621300	 80.87524100
66	1	 87.22385250	 73.65379200	 83.03755100
67	1	 90.16372050	 73.41705800	 83.04176700
68	1	 80.41712150	 76.07294600	 83.13846800
69	1	 84.42061350	 73.75715700	 83.10286800
70	1	 83.08914950	 76.27744800	 82.94161100
71	1	 82.90204450	 74.30392700	 85.19586600
72	1	 81.68081050	 76.62831500	 85.43950700
73	1	 84.48071550	 76.70781700	 85.24257800
74	1	 86.00310450	 76.07062100	 83.01333300
75	1	 85.88276250	 74.28916900	 85.22674000
76	1	 88.74990650	 75.79768800	 83.17894900
77	1	 88.69020550	 73.60867100	 85.47153200
78	1	 93.41251450	 73.35683700	 83.00201400
79	1	 91.73944150	 75.55577700	 83.08763400
80	1	 90.29596450	 75.91017600	 85.29109500
81	1	 91.79271750	 73.66100100	 85.15208700
82	1	 93.11163850	 76.01082700	 85.37754100
83	1	 94.69802150	 75.70388000	 83.03907400
84	1	 97.72109450	 75.60399300	 83.27105700
85	1	 95.06733550	 74.03103200	 85.14183900
86	1	 96.09437250	 76.46195200	 85.46517200
87	1	 97.70858350	 74.03685800	 85.22660800
88	1	 75.71710450	 81.65261500	 85.38440800
89	1	 78.79292150	 78.30075700	 83.26575100
90	1	 77.18380050	 80.32430700	 83.05824200
91	1	 80.08442850	 80.70024200	 83.24437000
92	1	 77.36093550	 79.34462800	 85.45291500
93	1	 80.32462450	 78.94098200	 85.49305100
94	1	 78.78150750	 81.57276700	 85.36221000
95	1	 81.55208650	 78.47319600	 82.88821400
96	1	 83.28135750	 80.90755900	 82.95296600
97	1	 84.53988050	 78.43848300	 83.09921900
98	1	 81.82175650	 81.49218500	 85.20298600
99	1	 83.19361250	 79.14412900	 85.34768900
100	1	 87.37682750	 78.49492500	 83.04196200
101	1	 86.23644650	 80.90867200	 83.19939900
102	1	 89.01739950	 80.54037400	 83.02672700
103	1	 87.88427450	 81.36536100	 85.33775400
104	1	 90.33012050	 77.99015400	 83.03945800
105	1	 91.69725550	 80.38594600	 83.02119900
106	1	 93.14875050	 77.73573500	 82.82052000
107	1	 93.23564250	 81.42448400	 85.44045400
108	1	 96.34778950	 77.77634400	 82.87955700
109	1	 94.86574950	 80.17418300	 82.72310000
110	1	 96.04362950	 81.14271200	 85.15823300
111	1	 97.57878250	 80.42741300	 83.07916900
112	1	 94.67873350	 78.77449700	 85.21898500
113	1	 97.63876650	 78.70583800	 85.27794500
114	1	 99.26958550	 77.68705600	 83.14057600
115	1	100.61460550	 80.26638600	 82.95183000
116	1	100.44453550	 78.70552600	 85.45151100
117	1	 99.46692550	 81.32016700	 85.11751600
118	1	101.97711550	 81.07253600	 85.34690700
119	1	 75.08077150	 85.42697500	 82.88517600
120	1	 76.12995950	 82.96900200	 83.16077700
121	1	 78.77087050	 83.22594800	 83.02283300
122	1	 77.76013650	 85.72971000	 83.31761600
123	1	 77.48391650	 83.92759900	 85.28687300
124	1	 80.45225150	 85.51311100	 83.16432600
125	1	 80.38825450	 83.77745500	 85.54420800
126	1	 81.74279050	 83.29514300	 82.91059600
127	1	 83.35661850	 85.89360800	 83.09567100
128	1	 84.74931350	 83.17677400	 82.66994200
129	1	 83.28477750	 84.19924200	 85.42666300
130	1	 87.71995550	 83.22189800	 82.90002100
131	1	 86.22084050	 85.58517600	 83.08390000
132	1	 88.99205750	 85.55142100	 82.72663700
133	1	 89.00260150	 83.96608300	 85.15053800
134	1	 90.37188450	 83.01054900	 82.85556500
135	1	 92.12335050	 85.45602800	 83.27724300
136	1	 93.11093550	 82.83395400	 83.18435900
137	1	 96.16662750	 82.89064400	 82.87444800
138	1	 94.95869450	 85.34044400	 83.42197200
139	1	 97.49839750	 85.29255200	 82.80803700
140	1	 96.33786150	 86.32597700	 85.41364800
141	1	 95.00385850	 83.58077900	 85.52265300
142	1	 98.93336750	 82.88497000	 82.73513100
143	1	100.27697550	 85.20877900	 82.86278500
144	1	100.72417550	 83.73697000	 85.28421600
145	1	 98.99204350	 85.93330000	 85.20608100
146	1	101.74209550	 82.59720000	 82.89298400
147	1	102.08855550	 86.14987800	 85.09056000
148	1	 97.78680750	 83.37329500	 85.11496000
149	1	104.76764550	 86.07537900	 85.01393000
150	1	103.40330550	 85.02304300	 83.15099200
151	1	103.50712550	 83.27089900	 85.09003200
152	1	 73.61916650	 87.92669200	 83.09897200
153	1	 76.24290050	 88.35168100	 83.08889000
154	1	 72.37579450	 89.12401500	 85.46572400
155	1	 74.74243150	 89.41029100	 85.41535700
156	1	 79.13005150	 88.02859700	 83.11045900
157	1	 77.39865450	 89.27520300	 85.44476000
158	1	 79.07394350	 86.53696900	 85.53387000
159	1	 80.41994550	 88.94189900	 85.38479100
160	1	 83.49927650	 87.68824800	 81.12693400
161	1	 82.04095250	 88.49926600	 83.21379000
162	1	 81.87736650	 86.66907700	 85.32808300
163	1	 85.19445250	 86.32438400	 85.37209700
164	1	 86.46796450	 90.59621600	 83.09649400
165	1	 87.68785750	 88.02915400	 82.88535200
166	1	 84.98224750	 88.15648300	 83.35688400
167	1	 89.06602450	 90.64229000	 82.98341700
168	1	 93.35366950	 87.92482000	 83.27612300
169	1	 90.49099650	 87.83060400	 82.98272200
170	1	 93.42221250	 85.95706300	 85.56262800
171	1	 90.73379550	 86.37074100	 85.44748700
172	1	 89.07170950	 88.88937500	 85.14874600
173	1	 91.82150850	 88.77496500	 85.41914800
174	1	 98.10016750	 90.36111800	 82.90941100
175	1	 96.63674250	 87.96577000	 82.96469900
176	1	 94.73764750	 88.55741700	 85.36324200
177	1	 99.22265950	 87.60119000	 82.75262000
178	1	100.63123550	 89.87468300	 82.86586400
179	1	102.07746550	 87.48427800	 82.76106600
180	1	 97.84541850	 88.58968800	 85.57459700
181	1	103.60474550	 90.19852600	 82.83666600
182	1	103.48640550	 88.47462000	 85.02765200
183	1	106.16213550	 88.62727900	 85.30175800
184	1	106.30944550	 90.11043500	 82.86642000
185	1	104.99743550	 87.65434700	 82.96194100
186	1	 78.82922450	 76.71270500	 85.43873400
187	1	 81.70256350	 75.07201100	 87.61925600
188	1	 84.40325450	 74.69219100	 87.42869200
189	1	 87.47155950	 74.43035100	 87.73756100
190	1	 85.89134950	 76.98876000	 87.70592300
191	1	 87.33631250	 76.26492200	 85.57732900
192	1	 88.78462350	 76.85804700	 87.62638100
193	1	 90.44607250	 74.58733600	 87.61007800
194	1	 91.60166850	 76.90743100	 87.47527200
195	1	 93.65069150	 74.66481300	 87.54216800
196	1	 96.21919750	 74.88281900	 87.81495800
197	1	 94.65243850	 77.15281000	 87.81961200
198	1	 97.55649850	 77.27279100	 87.58869500
199	1	 98.72292450	 74.83185100	 87.55397900
200	1	100.32519550	 77.29024100	 87.65499600
201	1	 99.38054050	 76.35737600	 85.43805400
202	1	 76.07800950	 80.04632700	 87.58611800
203	1	 77.59184450	 77.58551200	 87.71527500
204	1	 80.25287850	 77.28657800	 87.71872300
205	1	 78.89227350	 79.84518500	 87.79067100
206	1	 83.24056550	 77.33327200	 87.49423500
207	1	 81.83198050	 79.68815800	 87.64581500
208	1	 84.90320650	 79.91318700	 87.73387100
209	1	 84.70096950	 81.49827200	 85.46111500
210	1	 87.75041750	 79.69080500	 87.77223400
211	1	 88.94524950	 78.49748600	 85.42829300
212	1	 86.12292850	 79.03366300	 85.44635600
213	1	 90.39453950	 79.28324600	 87.59866400
214	1	 91.83818950	 78.78140000	 85.44376600
215	1	 90.45476050	 81.11779300	 85.56981600
216	1	 93.26360850	 79.83765800	 87.42226700
217	1	 91.72212450	 82.03747200	 87.79069100
218	1	 96.19630650	 79.69352800	 87.55172300
219	1	 94.72491850	 82.16858600	 87.73793700
220	1	 97.46058650	 82.09269800	 87.63205700
221	1	 99.02814650	 79.72944300	 87.44137400
222	1	101.90987550	 79.57942900	 87.56876100
223	1	100.44836550	 80.48585400	 89.90124400
224	1	100.53659550	 82.00055000	 87.56095600
225	1	 98.97323850	 78.05436800	 90.10391200
226	1	103.38188550	 81.94194200	 87.55493200
227	1	103.41988550	 80.38651600	 89.68404400
228	1	 74.54954450	 82.59834600	 87.50134900
229	1	 73.43797250	 85.18375900	 87.66684900
230	1	 76.10483150	 84.92074300	 87.60225200
231	1	 74.69602050	 84.19424700	 85.31008600
232	1	 77.22122850	 82.31666000	 87.61612900
233	1	 79.05876150	 84.84295800	 87.83154000
234	1	 80.50455150	 82.06559600	 87.88456500
235	1	 83.27517550	 82.30209300	 87.77253100
236	1	 81.74728150	 84.67926900	 87.60571400
237	1	 84.77425450	 84.90050200	 87.62161900
238	1	 88.89898850	 82.22785700	 87.63047600
239	1	 86.17098750	 82.23370600	 87.67254500
240	1	 87.67516550	 84.75245000	 87.74245700
241	1	 87.69603450	 86.16012700	 85.24337300
242	1	 86.13898750	 83.75116100	 85.19328200
243	1	 90.40170950	 84.51356600	 87.96413600
244	1	 91.50373950	 83.66134400	 85.72310000
245	1	 93.33019350	 84.41707300	 87.96008000
246	1	 96.47446550	 84.52875300	 87.75461700
247	1	 99.09644250	 84.46628800	 87.65605800
248	1	102.18319550	 84.22168800	 87.38948400
249	1	104.90415550	 84.43127900	 87.35782800
250	1	104.48178550	 83.12212300	 89.59820400
251	1	106.22534550	 85.49068100	 89.88696600
252	1	103.40086550	 85.59164600	 89.66670800
253	1	 72.34622450	 87.77806500	 87.95011100
254	1	 73.54655550	 90.23712300	 87.68412700
255	1	 74.88983650	 87.89894200	 87.63488300
256	1	 76.02918850	 90.33255900	 87.78887500
257	1	 73.38863950	 86.67156000	 85.57325300
258	1	 76.15077050	 86.64975600	 85.27513000
259	1	 79.25115650	 90.01447100	 87.72063600
260	1	 77.70724150	 87.79515100	 87.51136800
261	1	 80.37612650	 87.37935800	 87.87183100
262	1	 81.89831150	 89.72531300	 87.64845400
263	1	 83.13654350	 87.05858600	 87.51942500
264	1	 84.77312250	 89.68714600	 87.88866900
265	1	 83.26496450	 89.20292900	 85.35360700
266	1	 86.30545850	 87.14334100	 87.67893700
267	1	 87.62612450	 89.76955600	 87.82743500
268	1	 86.32172350	 89.15249000	 85.55839400
269	1	 89.13711950	 87.12641100	 87.27916700
270	1	 91.92691450	 87.05260300	 87.80107100
271	1	 90.63891450	 89.52293600	 87.85903600
272	1	 93.34419450	 89.47641300	 87.61138200
273	1	 94.92442950	 86.85006000	 87.77407200
274	1	 96.09134250	 89.35586000	 87.60473200
275	1	 97.78394550	 86.91634300	 87.72837100
276	1	100.76374550	 86.80297500	 87.48554000
277	1	 99.02970450	 89.26873500	 87.98823300
278	1	102.21918550	 89.29113000	 87.29300000
279	1	100.50145550	 88.33337800	 85.02835200
280	1	103.72103550	 86.95538500	 87.37308100
281	1	105.17131550	 89.48171500	 87.59517600
282	1	106.53500550	 90.20569600	 89.83682000
283	1	106.42677550	 87.05016100	 87.65945800
284	1	107.65377550	 89.55385800	 87.34885600
285	1	107.56429550	 87.80470100	 89.92202200
286	1	 83.34798550	 75.58936900	 89.72666200
287	1	 82.03427850	 76.68000100	 92.46563200
288	1	 84.69524050	 76.07257800	 92.15965400
289	1	 86.10268550	 75.30344200	 89.85951300
290	1	 87.60935350	 76.20661900	 92.34887900
291	1	 88.81132950	 75.31659300	 90.03423900
292	1	 91.93018550	 75.62009600	 89.78827200
293	1	 90.40554350	 76.18070300	 92.16620100
294	1	 93.18325050	 76.17154800	 92.24486300
295	1	 97.70113050	 75.61299700	 89.89541600
296	1	 94.67160050	 75.28574900	 90.06142000
297	1	 96.09254850	 76.36019600	 92.23128100
298	1	 98.86249550	 76.40089800	 92.10576900
299	1	 74.73708250	 81.26741500	 89.83172000
300	1	 76.33839050	 81.75544300	 92.28999400
301	1	 78.78687750	 78.29831800	 89.96062000
302	1	 77.45414550	 80.78844600	 89.95504300
303	1	 77.53682350	 79.19244800	 92.28505300
304	1	 78.99532850	 81.51365700	 92.65793500
305	1	 80.25219750	 80.44454400	 90.26832500
306	1	 80.38896150	 79.09132400	 92.46833300
307	1	 81.71518050	 77.80793400	 90.15141200
308	1	 83.31211750	 80.64995200	 89.93483100
309	1	 83.59216250	 78.91581900	 92.13036300
310	1	 84.68773550	 77.93091100	 89.86225800
311	1	 82.03903150	 81.28460700	 92.30027600
312	1	 84.76804350	 81.43487800	 92.34223100
313	1	 87.48548750	 77.77606400	 89.78068600
314	1	 86.31172950	 80.58692800	 90.11204200
315	1	 86.12013750	 78.87568200	 91.93592900
316	1	 87.94254650	 81.18046900	 92.47818400
317	1	 89.06468450	 80.23958300	 90.27944700
318	1	 93.29069850	 77.98888400	 90.11603000
319	1	 89.23731650	 78.44667300	 92.46334000
320	1	 90.20445750	 77.76195900	 89.99112500
321	1	 91.97386650	 78.87352600	 92.31880500
322	1	 91.84986450	 80.24100100	 89.82594000
323	1	 90.60753650	 81.18389600	 92.47377900
324	1	 93.45993750	 81.20229200	 92.43478000
325	1	 96.06745650	 77.97504000	 89.92606600
326	1	 97.62977350	 78.64105000	 92.43834600
327	1	 94.74463650	 78.62576600	 92.20154500
328	1	 94.89031250	 80.42714800	 90.11800000
329	1	 96.32045250	 81.24140600	 92.36703500
330	1	 97.58498650	 80.26868200	 89.94748800
331	1	101.60470550	 78.04764200	 89.84435900
332	1	 99.06111950	 80.94921200	 92.37983600
333	1	100.51069550	 78.71201400	 92.19495700
334	1	102.14198550	 81.12659800	 91.87369900
335	1	104.69055550	 81.50731400	 91.70040800
336	1	 74.89531950	 86.01034500	 89.84980100
337	1	 72.52172250	 86.06673000	 89.91961900
338	1	 73.36869950	 83.55317300	 89.95443600
339	1	 74.72436050	 84.19463100	 92.02861100
340	1	 76.16256150	 83.26624300	 89.96218600
341	1	 77.39296550	 86.01768300	 89.71933500
342	1	 79.03512250	 83.06341600	 89.97583300
343	1	 77.48611350	 84.34784100	 92.12492300
344	1	 80.28430150	 84.08138900	 92.46056000
345	1	 80.54604850	 85.57149300	 90.04059000
346	1	 81.83449450	 82.89638800	 90.14212600
347	1	 83.20489150	 83.86450200	 92.34853500
348	1	 83.26512650	 85.88302500	 89.92212100
349	1	 84.81399350	 83.04872900	 89.98243100
350	1	 87.79579550	 83.24235100	 90.01780300
351	1	 86.26736950	 83.72076700	 92.15485600
352	1	 85.88065650	 85.57400200	 89.95748000
353	1	 89.06180350	 83.85420900	 92.36630000
354	1	 89.02340250	 85.76608000	 89.87431300
355	1	 90.53608650	 82.88060100	 90.26319200
356	1	 91.82680550	 85.64041700	 90.20533000
357	1	 91.96367850	 83.55756400	 92.52110300
358	1	 93.36677450	 82.88192800	 90.17604900
359	1	 93.35616150	 86.25837900	 92.41021600
360	1	 96.19750650	 82.79863400	 90.09097700
361	1	 94.82782150	 83.68400100	 92.50980100
362	1	 94.86202750	 85.38785800	 90.18323500
363	1	 97.59553050	 85.22814900	 90.11425400
364	1	 96.32026750	 86.14278400	 92.55892500
365	1	 97.83451850	 83.55515100	 92.36458300
366	1	 98.92508350	 82.78913200	 89.85182300
367	1	100.59849550	 85.25399300	 89.75278400
368	1	100.55576550	 83.42306900	 92.38018400
369	1	101.67058550	 82.83376400	 89.86084400
370	1	103.24466550	 83.62155600	 91.75293300
371	1	105.83907550	 83.85456800	 91.84137500
372	1	104.68352550	 86.29938500	 91.98641000
373	1	107.22188550	 86.28171800	 92.08112000
374	1	 73.57420250	 86.60585400	 92.21664700
375	1	 73.40215850	 88.63089600	 90.24047500
376	1	 74.75994350	 89.20498800	 92.36403400
377	1	 76.25649650	 86.67212600	 92.35523100
378	1	 76.29142750	 88.54292300	 89.87574200
379	1	 78.95619650	 86.73440800	 91.92639900
380	1	 79.15688050	 88.44009200	 89.96993400
381	1	 77.69067550	 89.29029200	 92.63422300
382	1	 80.44878650	 89.14434100	 92.28523300
383	1	 82.02313750	 86.60983400	 92.24062200
384	1	 81.79351150	 88.25195200	 90.05019200
385	1	 83.19396050	 89.00651400	 92.39217700
386	1	 84.64596750	 88.28157900	 90.19598600
387	1	 84.84710450	 86.29006300	 92.49560500
388	1	 87.73253350	 86.16355500	 92.30271900
389	1	 86.34909650	 90.53312200	 90.17938600
390	1	 87.59300750	 88.15421500	 90.14229600
391	1	 86.04407950	 88.52296600	 92.54536500
392	1	 89.14555550	 90.54061900	 90.00699900
393	1	 92.44504050	 90.47122500	 90.09084500
394	1	 90.49538450	 86.27178600	 92.47803900
395	1	 88.98062250	 88.54023500	 92.47818400
396	1	 90.44340350	 88.05433800	 90.07751600
397	1	 92.28985150	 88.91944800	 92.30297500
398	1	 95.28712750	 90.28803300	 90.09816700
399	1	 93.50811850	 88.09465800	 90.15597200
400	1	 96.35556450	 87.56755200	 90.02553600
401	1	 95.17889050	 88.53603300	 92.52288600
402	1	 99.25402850	 86.02711900	 92.16217300
403	1	101.92348550	 86.16798800	 92.20900600
404	1	 98.23795750	 90.44560100	 90.26558500
405	1	 98.17038550	 88.65466800	 92.51783600
406	1	 99.09577850	 87.82240600	 90.12333000
407	1	100.93431550	 88.64222800	 92.09912500
408	1	102.08427550	 87.76081900	 89.62387900
409	1	103.55495550	 90.35173900	 89.64264100
410	1	104.96005550	 87.93598000	 89.97959800
411	1	103.53518550	 88.77984000	 92.21394400
412	1	106.39336550	 88.89296700	 92.26170400
413	1	105.77293550	 87.22334000	 94.10563300
414	1	 83.44012850	 76.96653900	 94.52596600
415	1	 86.18700450	 77.13491800	 94.47604600
416	1	 89.00181250	 77.00380200	 94.82797600
417	1	 91.67734450	 76.93342000	 94.55226600
418	1	 94.44733650	 76.89746000	 94.54900800
419	1	 97.30973350	 77.03792900	 94.69682100
420	1	 80.56840550	 77.45508600	 94.55537000
421	1	 76.39422950	 80.38701700	 94.42546300
422	1	 78.94777450	 79.65978100	 94.68183500
423	1	 77.84408750	 80.81673500	 96.75115700
424	1	 80.61866850	 80.26709500	 96.80943700
425	1	 82.23929750	 77.90952000	 96.53220700
426	1	 82.07477050	 79.75783600	 94.39547500
427	1	 83.43210150	 80.50528500	 96.54638700
428	1	 84.69958750	 79.55155500	 94.36399100
429	1	 83.72197450	 82.35517700	 94.45363400
430	1	 85.10163150	 78.10221200	 96.69860700
431	1	 87.73563550	 77.90202500	 97.08292700
432	1	 87.66856950	 79.25749800	 94.62400700
433	1	 86.60519150	 80.52101300	 96.88749700
434	1	 89.26012550	 80.47361900	 96.98994700
435	1	 90.36164450	 78.22782300	 97.03788700
436	1	 90.25562450	 79.52699400	 94.52022500
437	1	 91.97977950	 80.46207400	 97.12722700
438	1	 91.77880950	 81.97184400	 94.80459600
439	1	 93.34627750	 77.60449700	 97.05002700
440	1	 93.25122550	 79.53806300	 94.69289100
441	1	 95.95955750	 77.78604300	 96.74545700
442	1	 94.72541250	 80.26668900	 97.18768700
443	1	 96.02293550	 79.40934700	 94.48657900
444	1	 97.38219650	 79.99853700	 96.90336700
445	1	 94.68955550	 81.90382800	 94.99261400
446	1	 98.93884750	 78.09156700	 96.75938700
447	1	 99.23211350	 79.26855700	 94.57449300
448	1	100.66093550	 80.47863800	 96.98235700
449	1	102.16982550	 79.58811200	 94.10538500
450	1	 74.90407150	 82.56014600	 94.36049000
451	1	 73.88853750	 85.18969900	 94.32690900
452	1	 75.22607150	 85.82722300	 96.97141700
453	1	 76.42728750	 85.12283400	 94.71429900
454	1	 76.50699050	 83.20770700	 96.75426700
455	1	 77.87398850	 82.72252400	 94.51728600
456	1	 79.29792250	 85.08015900	 94.70453000
457	1	 79.48522750	 83.36048800	 96.87895700
458	1	 78.10739450	 85.58396500	 96.90486700
459	1	 80.71576350	 82.30565900	 94.89786200
460	1	 80.85985550	 85.58029300	 97.26612700
461	1	 82.01084250	 84.78684300	 94.70818400
462	1	 82.13205950	 83.20246000	 97.18880700
463	1	 83.55630750	 85.56186500	 97.32952700
464	1	 84.73621750	 84.83416200	 94.72605200
465	1	 84.98146650	 82.90343900	 97.05923700
466	1	 86.33833650	 82.06991100	 94.84833100
467	1	 87.64763650	 84.57208300	 94.74091900
468	1	 87.80681950	 83.14510100	 97.20175700
469	1	 86.28908750	 85.39337900	 97.21147700
470	1	 89.06822750	 82.16666100	 94.80198200
471	1	 89.42884850	 85.39369300	 97.28309700
472	1	 90.56394650	 82.98871400	 97.28006700
473	1	 90.68710650	 84.59588200	 95.01964600
474	1	 92.39768250	 85.19797300	 97.06495700
475	1	 93.34750850	 84.45472500	 94.71295500
476	1	 93.53191650	 82.78084800	 97.43136700
477	1	 97.49213750	 81.71105800	 94.59641500
478	1	 96.38482650	 82.72383200	 97.03964700
479	1	 96.29739150	 84.22913500	 94.65812800
480	1	 95.01602950	 85.29710600	 97.42745700
481	1	 97.74031950	 85.24549600	 96.88526700
482	1	100.63471550	 81.63193900	 94.44062900
483	1	102.15631550	 82.73719200	 96.70370700
484	1	 99.10403750	 82.53147200	 96.72194700
485	1	 99.23545550	 84.27867900	 94.65717400
486	1	100.57946550	 85.30177000	 96.57567700
487	1	102.02169550	 84.41396300	 94.38552400
488	1	103.21188550	 82.10985700	 94.24416100
489	1	104.62124550	 84.52080500	 94.17250200
490	1	103.39056550	 85.13362600	 96.59492700
491	1	 74.95464150	 87.59255000	 94.78489500
492	1	 76.21277850	 89.82420100	 94.92104300
493	1	 76.90544950	 88.16495100	 96.85411700
494	1	 79.28802250	 89.73290800	 94.83228300
495	1	 77.88192250	 87.38491500	 94.57156800
496	1	 79.56532850	 87.89689600	 96.93303700
497	1	 80.71866350	 87.35010900	 94.36922900
498	1	 83.62298150	 90.44376100	 97.21748700
499	1	 82.06899250	 89.82881500	 94.88828500
500	1	 83.67728250	 87.48289100	 94.89892800
501	1	 82.24029150	 87.89565700	 97.38207700
502	1	 85.03731750	 89.74017100	 94.87879800
503	1	 89.51507250	 90.29369900	 97.23430700
504	1	 86.53090650	 90.17007300	 97.20889700
505	1	 85.08495550	 87.97470600	 97.33340700
506	1	 87.99214150	 89.42793100	 95.03876400
507	1	 86.51570350	 87.01214100	 94.92463000
508	1	 88.01319450	 87.83480200	 97.27276700
509	1	 89.54539450	 87.01792000	 94.79125700
510	1	 92.41364150	 90.42141200	 97.28347700
511	1	 92.23349850	 87.24057900	 94.50613300
512	1	 90.81391350	 89.63334100	 95.00338700
513	1	 90.97588450	 87.75559900	 97.09004700
514	1	 95.19575250	 90.31657000	 97.58360700
515	1	 93.58539150	 87.83565300	 97.11580700
516	1	 93.66990250	 89.50865000	 94.76218600
517	1	 94.96885650	 86.77838000	 94.83671800
518	1	 96.48475450	 89.34835200	 95.10227000
519	1	 96.22569750	 87.82600200	 97.38377700
520	1	 97.67330650	 86.91183000	 94.73425400
521	1	100.71963550	 90.14012900	 97.03461700
522	1	 98.01792750	 90.29584200	 97.34813700
523	1	100.49314550	 86.92214300	 94.62781100
524	1	 99.19345450	 87.50663900	 97.09748700
525	1	 99.36512550	 89.29813800	 94.95923700
526	1	102.00424550	 89.45275400	 94.54827400
527	1	102.01376550	 87.84878800	 96.68342700
528	1	103.42279550	 90.10343800	 97.04962700
529	1	103.26898550	 86.88140300	 94.42621900
530	1	104.57081550	 89.61286800	 94.54119000
531	1	 79.48646950	 81.60563900	 99.00408700
532	1	 83.56861750	 78.82776000	 98.58593700
533	1	 82.25078450	 81.26064600	 99.03147700
534	1	 84.86922450	 81.11543700	 99.09102700
535	1	 86.43790050	 78.89529600	 99.23917700
536	1	 87.91271950	 81.20868900	 99.20967700
537	1	 89.13106450	 78.85647800	 99.40777700
538	1	 91.98385850	 78.80398200	 99.01938700
539	1	 90.58830650	 81.39579300	 99.58340700
540	1	 93.38498450	 81.25170900	 99.44158700
541	1	 94.71491250	 78.75186000	 99.22980700
542	1	 96.18078650	 81.06212200	 99.24888700
543	1	 97.27679050	 78.54097600	 98.89896700
544	1	 98.88879550	 81.05711600	 98.83564700
545	1	 78.03775950	 83.95781900	 98.94956700
546	1	 80.95403950	 83.81527700	 99.52155700
547	1	 83.54686750	 83.55843500	 99.52811700
548	1	 86.15972250	 83.59602600	 99.48781700
549	1	 90.76699550	 86.00493900	 99.31058700
550	1	 92.03105850	 83.78658600	 99.64043700
551	1	 89.07143850	 83.81946800	 99.53090700
552	1	 96.44471750	 86.23625700	 99.73573700
553	1	 93.68128750	 86.01570900	 99.70448700
554	1	 95.02119550	 83.54657900	 99.67292700
555	1	100.65136550	 83.58442600	 98.77560700
556	1	 97.92167750	 83.60900000	 99.22374700
557	1	 99.21184350	 86.02269500	 99.31293700
558	1	101.89186550	 85.97806300	 98.77155700
559	1	 80.79068650	 88.75466400	 99.54390700
560	1	 78.16107950	 88.74357800	 99.18419700
561	1	 79.41830450	 86.46116900	 99.49292700
562	1	 76.72761350	 86.37001100	 98.88297700
563	1	 82.28644850	 86.20136000	 99.62871700
564	1	 83.50199150	 88.60651200	 99.63450700
565	1	 89.28834250	 88.67359500	 99.43033700
566	1	 86.40740350	 88.68807300	 99.59295700
567	1	 85.05925750	 86.20002700	 99.57916700
568	1	 87.90437950	 86.15158400	 99.38686700
569	1	 92.22984850	 88.44121300	 99.31455700
570	1	 94.92306150	 88.51224300	 99.74063700
571	1	100.76134550	 88.44271200	 98.88972700
572	1	 98.10859250	 88.40602200	 99.26565700
573	1	 73.35121850	 91.93942500	 81.02897400
574	1	 75.70905450	 91.75562300	 80.25936300
575	1	 74.62044150	 94.37642100	 80.91566100
576	1	 78.28850850	 92.25414600	 80.44320500
577	1	 77.27146450	 94.70808900	 80.81921300
578	1	 80.88282150	 92.35448500	 80.57430800
579	1	 83.93669150	 92.15007000	 80.60557200
580	1	 82.58176550	 94.75441100	 80.78735800
581	1	 85.46682350	 94.60429700	 80.44199300
582	1	 86.61140550	 92.11290700	 80.46441300
583	1	 89.37434150	 92.26476900	 80.68980800
584	1	 88.31741450	 94.83653200	 80.87439600
585	1	 92.03547650	 91.84793300	 80.95542900
586	1	 93.68481150	 94.31163400	 80.77899300
587	1	 90.89449950	 94.58494700	 80.93903000
588	1	 94.95005750	 91.86572200	 80.68771200
589	1	 96.33325150	 94.26717900	 80.63918800
590	1	 97.65584150	 91.78203100	 80.76371300
591	1	100.21252550	 91.54782100	 80.75917500
592	1	101.52063550	 93.88871800	 80.85333700
593	1	 99.00733250	 94.12334400	 80.98286300
594	1	102.66645550	 91.42662500	 80.64662800
595	1	104.30337550	 93.83518900	 81.06934100
596	1	105.20156550	 91.56035300	 80.90250500
597	1	 75.94019150	 97.01641000	 80.51211200
598	1	 78.48025950	 97.05005700	 81.04569000
599	1	 79.85365150	 94.64380900	 80.86611200
600	1	 81.06409850	 96.96217100	 80.91366800
601	1	 83.99029450	 97.13450700	 80.73572300
602	1	 86.80423150	 97.19311800	 80.68191300
603	1	 92.42392150	 96.92141300	 80.97962900
604	1	 89.66597750	 97.22489800	 81.16946400
605	1	 95.00532950	 96.78557200	 80.69450200
606	1	100.42742550	 96.45149900	 81.23544400
607	1	101.65396550	 98.66216700	 80.59642300
608	1	102.97122550	 96.20770200	 80.78804400
609	1	 79.86854050	 99.58971200	 80.99218000
610	1	 77.40182950	 99.36163700	 80.54067300
611	1	 81.67813750	101.87443400	 80.49347200
612	1	 82.54873650	 99.34464300	 80.74980800
613	1	 84.17897750	102.18886400	 80.63760500
614	1	 85.14843750	 99.52164000	 80.67502300
615	1	 86.87725450	102.01024400	 80.69092200
616	1	 88.37604650	 99.44403200	 80.76565700
617	1	 89.47086350	101.83359400	 80.52972700
618	1	 91.10801450	 99.57351800	 81.09268600
619	1	 92.24601050	102.03492400	 80.66243500
620	1	 93.79478250	 99.49685600	 80.74532200
621	1	 96.54045750	 99.23525200	 80.76283300
622	1	 94.94450750	102.11834400	 80.85045100
623	1	 97.54784750	101.71266400	 80.78187700
624	1	 99.13528150	 98.90821400	 80.84746500
625	1	100.21967550	101.08242400	 80.68683900
626	1	 82.70389950	104.65101400	 80.67543700
627	1	 85.62869450	104.41465400	 81.01123900
628	1	 88.18735550	104.23054400	 81.08949600
629	1	 90.91224050	104.44727400	 80.86599800
630	1	 93.81313350	104.31899400	 81.08192500
631	1	 73.67748350	 93.30244000	 83.21860400
632	1	 75.04740050	 94.35550700	 85.42177900
633	1	 72.75697650	 90.71287200	 83.11284500
634	1	 75.14118550	 90.70661700	 82.64523200
635	1	 75.89661950	 91.76120400	 85.10137700
636	1	 76.37155050	 93.02948900	 82.62608500
637	1	 79.29130450	 93.11788700	 83.06434100
638	1	 77.89381950	 90.55800100	 82.80457100
639	1	 79.18242450	 91.48496800	 85.32889300
640	1	 83.80382450	 90.72731600	 83.19576000
641	1	 80.53266750	 90.61947200	 83.05496800
642	1	 82.20495150	 93.01560300	 82.81832100
643	1	 83.61756650	 94.03424300	 85.24096600
644	1	 85.19260350	 93.05833800	 82.76402400
645	1	 87.79245650	 93.04040900	 82.82984200
646	1	 91.83073250	 90.34744500	 83.14481200
647	1	 90.72005150	 92.98807700	 83.09017800
648	1	 90.68357050	 91.23162700	 85.53437300
649	1	 92.10332250	 93.86501000	 85.39106000
650	1	 93.56226850	 92.86990800	 83.05326200
651	1	 94.91486850	 90.07039100	 83.02912300
652	1	 96.45189050	 92.64911000	 82.90665200
653	1	 95.08162350	 93.54785800	 85.30418100
654	1	 96.33494450	 90.98852200	 85.34267700
655	1	 99.53868550	 92.66763400	 83.18788200
656	1	 99.00930950	 90.92599500	 85.55250300
657	1	102.63690550	 92.78401400	 83.07779600
658	1	105.36832550	 92.79723600	 83.34702300
659	1	103.72046550	 93.83876600	 85.38706300
660	1	104.71034550	 91.16883400	 85.29250600
661	1	106.24559550	 93.47248900	 85.74738800
662	1	107.28178550	 91.03271800	 85.23893600
663	1	 75.37583850	 95.46568100	 83.09095300
664	1	 76.58464250	 98.19947800	 82.99016000
665	1	 78.01818650	 95.71079800	 83.36926000