LAMMPS data file for Nanoparticles

1044 atoms
1 atom types
  0.0000 180.0000 xlo xhi
  0.0000 180.0000 ylo yhi
  0.0000 180.0000 zlo zhi

Atoms

1	1	 88.59117050	 73.04162200	 80.93597650
2	1	 86.12427250	 73.52442400	 80.94148350
3	1	 91.11098650	 72.31535600	 80.76553950
4	1	 79.58956050	 76.19090600	 80.49625250
5	1	 81.94663550	 76.16973600	 80.79510050
6	1	 84.81690050	 75.81853800	 80.58386850
7	1	 87.58915650	 75.71637900	 80.25873450
8	1	 90.22771850	 75.09871700	 80.57232150
9	1	 93.02830550	 74.32287600	 80.68131750
10	1	 92.06000950	 77.05847800	 80.62805650
11	1	 97.49180850	 75.99840600	 80.83505850
12	1	 94.86440350	 76.55170600	 80.50758750
13	1	 78.40442450	 78.99593600	 80.58200250
14	1	 80.19567650	 81.48199500	 80.64190750
15	1	 80.92531650	 78.66917700	 80.49770450
16	1	 83.52947350	 78.42233000	 80.35523550
17	1	 82.75020250	 81.03562300	 80.63603450
18	1	 86.58200850	 78.17291300	 80.63897450
19	1	 85.54053550	 80.66412600	 80.42511650
20	1	 88.57580250	 80.09648900	 80.78544050
21	1	 89.46410950	 77.74326100	 80.80736350
22	1	 91.17260150	 79.70136600	 80.75042850
23	1	 93.94526850	 79.39266100	 80.60946350
24	1	 96.41959450	 78.71107100	 80.57523850
25	1	 98.04442850	 80.82025200	 80.51282450
26	1	 95.51798250	 81.42495300	 80.85678250
27	1	 99.30992350	 78.02803800	 80.23125850
28	1	100.81429650	 80.25944900	 80.51657250
29	1	 76.29829150	 84.24781000	 80.53946050
30	1	 77.69944850	 81.77740600	 80.62991550
31	1	 79.11539950	 84.05561300	 80.71319950
32	1	 84.42834350	 83.16140900	 80.73925850
33	1	 81.90758550	 83.56535800	 80.83678050
34	1	 83.33678250	 85.72927200	 80.55780750
35	1	 87.29492250	 82.62694400	 80.57758750
36	1	 86.25886050	 85.52672400	 80.58031650
37	1	 88.88604250	 85.37548900	 80.50890050
38	1	 92.84848050	 82.16133900	 80.87807950
39	1	 90.24508650	 82.24098300	 80.58232450
40	1	 91.55411950	 84.76296900	 80.38712250
41	1	 94.73640650	 84.35217800	 80.61486350
42	1	 97.30544350	 83.33179000	 80.78585550
43	1	 99.90531650	 82.73398200	 80.44727350
44	1	102.38142650	 85.30371800	 80.42356050
45	1	 99.41522650	 85.29922800	 80.30874250
46	1	102.61406650	 82.43324400	 80.32800150
47	1	 74.98342850	 86.75457100	 80.69891050
48	1	 74.20211750	 89.35750700	 80.82172450
49	1	 76.83988150	 88.83587500	 80.44246250
50	1	 80.58607450	 86.15919700	 80.87591250
51	1	 77.79902650	 86.42211500	 80.30447050
52	1	 79.54545350	 88.88288700	 80.76515250
53	1	 82.49769550	 88.68247700	 80.64192050
54	1	 85.12945950	 87.91142700	 80.71298050
55	1	 87.91839350	 87.92223900	 80.71107950
56	1	 89.92804750	 89.90214900	 80.92247950
57	1	 90.91260050	 87.32064400	 80.99091850
58	1	 93.56625550	 86.79067200	 80.59613550
59	1	 92.70805150	 89.29432800	 80.79133750
60	1	 95.35024850	 88.98862600	 80.37042150
61	1	 96.81099150	 86.32076900	 80.60184850
62	1	 98.25106450	 88.61330700	 80.55146850
63	1	101.01003650	 87.89994300	 80.29703050
64	1	104.24031650	 87.55145000	 80.48167650
65	1	105.93950650	 89.90006500	 81.05119750
66	1	102.90603650	 89.83721500	 80.31799250
67	1	 92.85651250	 72.74914600	 82.90901650
68	1	 95.59073550	 72.46164200	 83.02018450
69	1	 80.77109850	 77.05129200	 82.87228750
70	1	 81.65806950	 74.49225400	 83.04991050
71	1	 83.49721150	 76.75703600	 82.84427150
72	1	 84.47082750	 74.12251300	 82.90166550
73	1	 83.18428650	 75.07214200	 85.23104450
74	1	 84.96629750	 76.98523600	 85.04739050
75	1	 87.57500750	 73.69700500	 83.30085350
76	1	 86.40977950	 76.24185600	 82.70592450
77	1	 88.88309150	 75.72604900	 82.73010850
78	1	 87.80693850	 76.46910700	 85.11735050
79	1	 88.94284250	 73.81685900	 85.61373550
80	1	 85.80956250	 74.48351900	 85.34677550
81	1	 90.11806050	 73.12120500	 83.06083750
82	1	 91.60813450	 75.32212800	 83.06208350
83	1	 90.70147650	 76.21550800	 85.48849650
84	1	 91.58033450	 73.36009000	 85.32013050
85	1	 95.72576250	 73.83063000	 80.85443250
86	1	 94.46000450	 74.89175800	 82.98259450
87	1	 97.44421450	 74.40879600	 82.82645750
88	1	 96.31573550	 76.88483300	 82.98959350
89	1	 99.59606150	 76.11772300	 82.73834650
90	1	100.69607650	 77.32596000	 84.77546550
91	1	 77.12039350	 80.07622000	 82.65453650
92	1	 78.26677050	 77.56848800	 82.57601250
93	1	 79.84202050	 79.66466700	 82.92206650
94	1	 79.28342050	 78.07054600	 85.21830350
95	1	 77.98613950	 80.53648400	 85.10629950
96	1	 82.44887950	 79.15324400	 82.66614750
97	1	 81.96838850	 77.58471600	 85.17524250
98	1	 85.16615350	 78.98970600	 82.55998050
99	1	 87.83850150	 78.59055700	 83.02788850
100	1	 86.61824050	 79.46592100	 85.04339150
101	1	 86.97501550	 81.20529300	 82.99371950
102	1	 89.80614250	 81.06251100	 83.10904150
103	1	 90.80848850	 77.91312800	 83.10593350
104	1	 92.45866250	 80.40749300	 82.91321050
105	1	 93.66544550	 77.63878000	 82.66705250
106	1	 92.54665350	 78.56096700	 85.24795650
107	1	 95.50592050	 79.71339800	 82.89093150
108	1	 95.43465750	 77.86885800	 85.21700950
109	1	 94.26939750	 80.61914300	 85.03703950
110	1	 97.03390050	 80.03412600	 85.06013150
111	1	 98.18210650	 77.21998400	 84.93375550
112	1	 98.36202950	 78.89192300	 82.63338350
113	1	101.21101650	 78.65927700	 82.43776450
114	1	100.04512650	 81.35453300	 82.79446050
115	1	102.73739650	 79.56873300	 85.05923250
116	1	102.73859650	 80.92018500	 82.82991950
117	1	104.26637650	 81.79687600	 85.09165650
118	1	 75.96310350	 82.60677000	 82.66993950
119	1	 74.69252550	 85.14834000	 82.87565450
120	1	 76.92665350	 83.18938100	 85.14579350
121	1	 78.96592950	 82.28662600	 82.99705550
122	1	 77.52912250	 85.11253300	 82.79027350
123	1	 80.42460550	 84.51843100	 82.96311150
124	1	 79.00418650	 85.44296200	 85.28645250
125	1	 80.00602850	 82.93277800	 85.24514650
126	1	 84.36221350	 81.62437900	 82.94179950
127	1	 81.72299050	 81.78742000	 82.94681250
128	1	 83.13561150	 84.17809200	 83.16207650
129	1	 84.73721650	 84.72301800	 85.37464150
130	1	 86.14217550	 83.77674200	 82.95283150
131	1	 88.76428150	 83.66600200	 82.74330550
132	1	 85.55434950	 82.13167200	 85.36164750
133	1	 87.81441950	 86.32502100	 82.97780650
134	1	 87.52114850	 84.38317200	 85.25181850
135	1	 91.52735650	 83.05540600	 83.10348050
136	1	 93.19376050	 85.11943700	 82.71518350
137	1	 90.52376650	 85.63596700	 82.99629350
138	1	 90.27484150	 83.96571400	 85.27886350
139	1	 93.34679350	 83.51985400	 85.14058650
140	1	 96.38690150	 84.97670500	 82.77295150
141	1	 94.62900450	 82.42506500	 83.07354750
142	1	 97.41187750	 81.84679600	 82.99150650
143	1	 97.74078550	 85.34788200	 84.99732150
144	1	 94.94972550	 85.75212400	 85.18905450
145	1	 98.95772150	 84.08829500	 82.72801950
146	1	101.60737650	 83.65538800	 82.31104950
147	1	 98.73218650	 82.36993300	 85.13953050
148	1	101.54575650	 82.13481300	 85.09210750
149	1	100.16577650	 84.57645300	 85.04734150
150	1	104.22106650	 82.93435500	 82.54629650
151	1	103.12296650	 84.17585400	 84.75025350
152	1	103.81690650	 85.73324700	 82.62435050
153	1	 72.55332350	 90.40588300	 82.91796950
154	1	 75.70851550	 85.94153200	 85.09814750
155	1	 73.68644650	 87.75546700	 83.00770650
156	1	 76.40033950	 87.67320800	 82.94709450
157	1	 75.06437450	 88.70165000	 85.18178050
158	1	 79.15462850	 87.24185200	 82.93564950
159	1	 78.12701450	 90.08747200	 82.65287050
160	1	 77.78768650	 88.25787700	 85.28291850
161	1	 80.91329550	 87.88308600	 85.40754450
162	1	 80.95100550	 89.34424000	 82.94757550
163	1	 82.19167850	 86.96944600	 82.73626950
164	1	 84.98599950	 86.27628400	 82.82719950
165	1	 83.96459550	 89.04431500	 82.84834350
166	1	 82.33331250	 90.22122200	 85.34640550
167	1	 85.32452750	 89.74390800	 85.52306850
168	1	 86.75747450	 88.93476500	 83.09285450
169	1	 86.32523950	 87.07019900	 85.23273850
170	1	 88.23265950	 89.24368700	 85.32752150
171	1	 89.72405450	 88.18837100	 83.26014250
172	1	 93.89132350	 88.46808700	 85.25577250
173	1	 92.49420750	 87.66846900	 83.07943050
174	1	 94.25005450	 90.25132400	 82.64964950
175	1	 96.55652650	 88.05140500	 85.26508750
176	1	 95.31457950	 87.51717700	 82.49933050
177	1	 97.03964950	 89.52492900	 82.79756950
178	1	101.51535650	 89.47104800	 84.61580150
179	1	 98.60676450	 90.19447800	 85.35895450
180	1	 98.34870850	 86.86625100	 82.60842150
181	1	101.09049650	 86.15021300	 82.49027950
182	1	 99.85817650	 88.92143300	 82.57231150
183	1	 99.65821850	 87.40075800	 85.12475950
184	1	105.20459650	 86.58068100	 85.09265550
185	1	105.35063650	 88.12562500	 82.99912050
186	1	104.21717650	 89.17511800	 85.38648150
187	1	102.53662650	 86.93986800	 84.86973750
188	1	102.74624650	 88.28783100	 82.53114050
189	1	 79.21833750	 76.49866900	 87.56621050
190	1	 80.38029450	 75.54248000	 85.10743350
191	1	 81.85756650	 75.77206300	 87.61432050
192	1	 84.59540650	 75.34223500	 87.67732150
193	1	 83.51444350	 76.44434700	 89.87272550
194	1	 87.57639150	 75.11347200	 87.78038850
195	1	 89.25886350	 77.02175300	 87.52705050
196	1	 90.52714750	 74.41022100	 87.70935850
197	1	 93.16884850	 74.31788700	 87.55660650
198	1	 92.16130850	 76.82230400	 87.69376850
199	1	 93.65100450	 75.86422500	 85.30699350
200	1	 95.81962850	 73.90295600	 87.51681750
201	1	 94.96274050	 76.45074200	 87.50663850
202	1	 97.67536450	 75.93684500	 87.33282950
203	1	 94.43011950	 73.17642300	 85.17914750
204	1	 96.30272650	 75.10337900	 85.18011650
205	1	100.43910650	 75.69844200	 87.00859950
206	1	 99.01409850	 74.78034900	 85.02316750
207	1	 77.09024250	 79.86526800	 89.64617050
208	1	 77.81870750	 78.96464300	 87.37740650
209	1	 79.55407050	 80.97553200	 87.31286950
210	1	 80.75015450	 78.47825900	 87.42939750
211	1	 76.82555650	 81.54035000	 87.45833450
212	1	 80.98967050	 80.25428800	 85.21735250
213	1	 83.55937250	 77.95655500	 87.14317650
214	1	 82.40302650	 80.83029000	 87.49120650
215	1	 83.81063150	 79.68129200	 85.09577150
216	1	 86.35758550	 77.62019600	 87.65614150
217	1	 85.72883650	 80.14168700	 87.59015650
218	1	 88.41192150	 79.56665100	 87.50623950
219	1	 89.57609050	 78.72621600	 85.31419550
220	1	 91.17369950	 79.47818100	 87.52611550
221	1	 94.14976950	 79.06960100	 87.44943850
222	1	 91.54742250	 81.19287800	 85.28735250
223	1	 97.07590650	 78.77918200	 87.49226950
224	1	 95.72057650	 81.44633100	 87.73300550
225	1	 99.62131650	 78.37992200	 87.38095750
226	1	101.40643650	 80.57849000	 87.19779150
227	1	 98.71369950	 80.92882100	 87.39192650
228	1	102.34155650	 77.99759000	 87.18608550
229	1	 99.78697650	 79.74965500	 84.83771650
230	1	104.03895650	 80.02148000	 87.45037150
231	1	103.13851650	 81.03076000	 89.62006350
232	1	 75.95231950	 84.31432600	 87.45857950
233	1	 74.85287750	 85.45453800	 89.83633250
234	1	 75.84617050	 82.74599400	 89.68607550
235	1	 78.68721050	 83.65504700	 87.39866650
236	1	 81.35089150	 83.43865600	 87.74940050
237	1	 84.37500350	 83.11903600	 87.82222150
238	1	 81.96364050	 85.30902200	 85.36178050
239	1	 83.26356750	 85.38950500	 87.60762750
240	1	 82.98426350	 82.48513300	 85.45636450
241	1	 87.07914350	 82.58089100	 87.73675650
242	1	 89.11795350	 84.82047300	 87.80970350
243	1	 86.13091950	 85.33555000	 87.60825050
244	1	 88.36406750	 81.65498000	 85.32053950
245	1	 89.95115450	 81.89912300	 87.64646750
246	1	 91.81167150	 84.11917100	 87.72877050
247	1	 93.00586550	 81.59571300	 87.62360650
248	1	 92.00757250	 86.04818500	 85.30034950
249	1	 94.53993350	 84.30639400	 87.54199550
250	1	 97.46651450	 83.76786700	 87.49759350
251	1	 96.23754650	 82.90377400	 85.30360650
252	1	100.35427650	 83.17063800	 87.31426650
253	1	 99.35188350	 85.58463700	 87.61755450
254	1	 99.05279850	 84.14322500	 89.81849150
255	1	101.84326650	 83.72951700	 89.75064150
256	1	102.10299650	 85.40187900	 87.09290950
257	1	102.98465650	 82.59243000	 87.47685450
258	1	104.75952650	 84.74991100	 87.06739250
259	1	104.65222650	 83.33411900	 89.73301050
260	1	 74.75118650	 86.64102200	 87.52020950
261	1	 73.83487050	 89.60544500	 87.46523750
262	1	 76.50009850	 89.20111600	 87.65877050
263	1	 76.37531950	 87.60083600	 89.78215550
264	1	 80.15695550	 86.03629300	 87.57153450
265	1	 77.59086550	 86.54270800	 87.58954650
266	1	 79.26893450	 88.76230700	 87.65830750
267	1	 82.30448250	 88.38471600	 87.54278650
268	1	 84.92215150	 87.80623600	 87.53184050
269	1	 83.70902750	 87.27191300	 84.99024350
270	1	 89.96851250	 89.81919000	 87.43777450
271	1	 87.82565450	 87.70350600	 87.87739350
272	1	 89.18016950	 86.58456300	 85.39619150
273	1	 90.66717350	 87.17127700	 87.62115250
274	1	 93.62546150	 86.72476300	 87.52331650
275	1	 92.78407550	 89.35622300	 87.69785350
276	1	 91.32375350	 88.88237300	 85.38522750
277	1	 96.57193350	 86.40839200	 87.33830650
278	1	 95.52588750	 88.91945600	 87.54443850
279	1	 97.89953750	 86.89869400	 89.92759350
280	1	 98.46947650	 88.49657800	 87.52437250
281	1	101.18772650	 87.89445200	 87.54109250
282	1	 99.81206650	 89.34598900	 89.92110250
283	1	105.81594650	 89.94718300	 87.46111550
284	1	103.93184650	 87.52870400	 87.48668050
285	1	105.20732650	 88.47805400	 89.54169650
286	1	106.50028650	 87.22412900	 87.58530050
287	1	106.78380650	 88.76047200	 85.21526450
288	1	 80.85940350	 76.77859900	 89.82969150
289	1	 85.17110550	 76.69854400	 92.19874350
290	1	 82.41821450	 77.27594600	 92.31702450
291	1	 86.23735150	 75.93821200	 89.92568550
292	1	 89.30344950	 75.28624900	 90.05617850
293	1	 88.09486950	 76.39197800	 92.13751150
294	1	 92.10591650	 75.41576500	 89.97455650
295	1	 90.76888850	 76.19807900	 92.45241650
296	1	 93.56614850	 75.84481500	 92.52443650
297	1	 93.94623950	 77.46708300	 89.87327050
298	1	 97.53928650	 74.78325600	 89.83164750
299	1	 94.84338550	 75.00705100	 90.30141950
300	1	 96.37531650	 75.68975200	 92.30137450
301	1	 96.53500850	 77.14811100	 89.54387950
302	1	 99.61630650	 76.61323500	 89.64900850
303	1	101.07786650	 77.35091100	 91.75387350
304	1	 78.35404750	 77.30936500	 89.66714450
305	1	 79.68113750	 79.44123600	 89.73123750
306	1	 79.50331950	 77.95125600	 92.02583450
307	1	 78.36472050	 80.55620800	 91.88596350
308	1	 81.06590150	 79.96408600	 92.17916350
309	1	 82.47239250	 79.10273200	 89.84215050
310	1	 83.95538150	 79.46330900	 92.29226750
311	1	 85.29194050	 78.45584100	 89.92087650
312	1	 84.00791750	 81.17554300	 89.62355450
313	1	 88.13992550	 77.94449600	 89.83195250
314	1	 86.71829250	 79.00491800	 92.14869850
315	1	 86.81604250	 81.18261400	 90.00921450
316	1	 88.48922950	 81.34326800	 92.32922350
317	1	 89.48985850	 78.66028400	 92.20694450
318	1	 89.99663750	 80.44179800	 90.06053250
319	1	 92.70503950	 79.91174600	 89.80100950
320	1	 90.79972950	 77.75021000	 89.91403550
321	1	 92.25534050	 78.39172600	 92.36117750
322	1	 91.55268250	 81.05527800	 92.25616450
323	1	 94.13519150	 80.64671300	 92.20722850
324	1	 95.52981950	 79.74866700	 89.90696750
325	1	 95.26112750	 78.09016800	 92.34950450
326	1	 97.14997650	 80.23866700	 92.11478350
327	1	 98.79788750	 79.31093100	 89.91885950
328	1	101.53449650	 78.79311200	 89.48723850
329	1	100.39151650	 81.47554800	 89.66157550
330	1	 98.14711750	 77.67881000	 92.00785550
331	1	100.02518650	 79.84982000	 92.27806650
332	1	102.71245650	 79.79461600	 92.16787650
333	1	 76.24673650	 85.78550800	 92.13457250
334	1	 78.53275650	 82.24189000	 89.67435850
335	1	 77.43291850	 83.11421100	 92.05273750
336	1	 77.39508750	 84.93498800	 89.77929950
337	1	 80.06093450	 84.43501500	 89.86462550
338	1	 80.11732550	 82.70825700	 92.19587850
339	1	 78.98065650	 85.27066200	 92.21089050
340	1	 81.16718550	 81.74877100	 89.88488850
341	1	 81.88880150	 85.05242400	 92.24391050
342	1	 82.74071550	 82.13289100	 92.26773150
343	1	 82.95674750	 83.78353100	 90.09189950
344	1	 84.65367550	 84.64558000	 92.24809850
345	1	 85.69323550	 81.74103400	 92.20951650
346	1	 85.91726650	 83.59247200	 90.04339550
347	1	 87.24418750	 83.90233600	 92.34984050
348	1	 88.89753750	 83.26620000	 90.02701850
349	1	 87.62245450	 85.78806600	 89.98694450
350	1	 91.56409050	 82.78363800	 90.07238550
351	1	 90.27095550	 83.48819900	 92.47265250
352	1	 93.08887050	 83.46362300	 92.11791850
353	1	 93.25035250	 85.20224200	 89.88002150
354	1	 90.62839950	 85.38271300	 89.83404550
355	1	 91.81612750	 85.97308500	 92.24700750
356	1	 94.29684550	 82.31130300	 89.89570950
357	1	 97.41344950	 81.91992800	 89.96236750
358	1	 95.77014050	 82.68397600	 92.25528450
359	1	 95.97441050	 84.68581300	 89.77408650
360	1	 97.72935250	 85.32911900	 92.12256850
361	1	 94.84895150	 85.39755900	 92.18380050
362	1	 98.78613550	 82.52661900	 92.16131050
363	1	101.83070650	 82.23994600	 92.11576850
364	1	100.52305650	 84.77701700	 91.99014850
365	1	104.56769650	 81.95379700	 92.04753050
366	1	106.17850650	 84.28454900	 92.05910250
367	1	103.36413650	 84.50201300	 92.02660150
368	1	103.00097650	 86.14559600	 89.69433850
369	1	105.85375650	 85.65293600	 89.56272250
370	1	 73.78362550	 87.95915700	 89.63948450
371	1	 75.36958050	 90.32671400	 89.92124850
372	1	 75.32024350	 88.59376800	 92.01488850
373	1	 79.64197350	 90.53628900	 92.22638050
374	1	 78.05357650	 89.60961300	 90.02727350
375	1	 79.22101850	 87.04315200	 90.09513550
376	1	 77.86670650	 87.99822100	 92.21830350
377	1	 80.82662150	 87.89119900	 92.25362050
378	1	 80.96007050	 89.59806900	 89.58366150
379	1	 82.41915450	 90.19623400	 92.14919150
380	1	 84.80655050	 86.25601200	 90.01608350
381	1	 81.93680750	 86.83520200	 89.71642550
382	1	 83.54809150	 89.01001200	 89.81848950
383	1	 83.42629550	 87.38365100	 92.29115650
384	1	 85.36839650	 89.44001400	 92.23313450
385	1	 86.29718150	 88.58223700	 90.00753150
386	1	 88.08903450	 88.75556400	 92.27090250
387	1	 86.21251850	 86.77149900	 92.35526050
388	1	 89.09076150	 85.88257300	 92.26611950
389	1	 89.55819150	 87.98491700	 90.06347250
390	1	 91.24939550	 90.46283800	 89.77821250
391	1	 92.20841250	 87.76483800	 89.95582050
392	1	 90.84107550	 88.68355200	 92.31308950
393	1	 95.73335950	 90.68300500	 92.18581450
394	1	 96.92458250	 89.49805500	 90.05731350
395	1	 94.06881450	 90.02196000	 89.95355450
396	1	 93.70368950	 88.19501100	 92.24007350
397	1	 94.95864650	 87.28081400	 89.81477650
398	1	 96.48110650	 87.81806300	 92.04331550
399	1	 98.60095650	 90.33450200	 92.34025450
400	1	101.44539650	 89.93353200	 92.10941850
401	1	100.46867650	 86.57734800	 89.84500750
402	1	 99.49884250	 87.54832300	 92.29343850
403	1	102.34222650	 87.09460900	 91.93702950
404	1	102.52372650	 88.94706800	 89.69690850
405	1	104.09782650	 89.30253000	 92.06860250
406	1	105.05312650	 86.61330000	 92.26543950
407	1	106.54991650	 88.83584400	 93.44277350
408	1	107.44667650	 86.32546400	 93.52738150
409	1	107.09487650	 87.57309300	 91.13032850
410	1	 89.43926250	 77.20944200	 94.62458350
411	1	 92.33899750	 76.83774400	 94.59485850
412	1	 94.17881150	 77.45444100	 96.73334950
413	1	 95.53909750	 76.51684300	 94.53197650
414	1	 98.21529050	 76.02175400	 94.31064050
415	1	 96.76202750	 77.29651600	 96.76242950
416	1	 79.61760750	 80.81545400	 94.36733250
417	1	 80.65521050	 79.99502000	 96.67102950
418	1	 81.22838650	 78.69520000	 94.46275750
419	1	 83.94825950	 77.83186800	 94.36474850
420	1	 82.75399350	 80.87165800	 94.72883450
421	1	 83.23069050	 79.01193300	 96.68606950
422	1	 84.84324950	 81.35593000	 96.81532950
423	1	 85.54714350	 80.28299000	 94.37158350
424	1	 86.71885850	 77.60543100	 94.44439650
425	1	 85.89900950	 78.65893000	 96.83177950
426	1	 88.36004750	 79.58881800	 94.45467250
427	1	 88.62169650	 78.08278900	 97.03276950
428	1	 87.54956950	 80.72950400	 96.79465950
429	1	 91.26090650	 77.74063300	 96.88756950
430	1	 90.94134150	 79.25864000	 94.40113150
431	1	 90.34006750	 80.20738500	 96.86851950
432	1	 93.06658550	 80.28071500	 96.82736950
433	1	 94.00138350	 78.96989600	 94.56501450
434	1	 92.96709150	 81.75493300	 94.42753750
435	1	 97.19103150	 78.57294800	 94.43737450
436	1	 95.64726750	 79.84061100	 96.74403950
437	1	 95.98702550	 81.24791900	 94.31944050
438	1	 97.35749350	 82.07873100	 96.55150950
439	1	 98.41223450	 79.31096200	 96.99760950
440	1	 99.96121650	 78.41432100	 94.72926750
441	1	101.42138650	 80.70617300	 94.48538650
442	1	 98.74412750	 80.82211200	 94.60599450
443	1	100.19766650	 81.37037400	 96.80269950
444	1	 79.27223150	 82.39080600	 96.56640950
445	1	 78.46602550	 83.82830400	 94.52197450
446	1	 78.29233150	 85.27354000	 96.79107950
447	1	 80.96542950	 84.70142700	 96.85574950
448	1	 80.49158750	 85.89904400	 94.53244250
449	1	 81.51161350	 83.28443500	 94.50824350
450	1	 82.18115150	 82.17596500	 96.88733950
451	1	 83.80391950	 84.12003100	 97.00575950
452	1	 84.42693550	 82.85838600	 94.53680350
453	1	 83.59762550	 85.72984100	 94.50877050
454	1	 87.36838650	 82.46174500	 94.84602650
455	1	 86.40187750	 83.75777100	 96.99206950
456	1	 89.32455450	 84.81082100	 94.72459450
457	1	 86.11184050	 85.22663900	 94.71818250
458	1	 89.05223050	 83.26112800	 97.05686950
459	1	 88.08663950	 85.72215700	 97.03312950
460	1	 90.32797750	 82.13154800	 94.83685550
461	1	 91.99175650	 84.39412700	 94.71358550
462	1	 92.09432750	 82.84616700	 96.91637950
463	1	 93.58319250	 85.03986400	 96.96754950
464	1	 90.74446550	 85.44681300	 97.00957950
465	1	 94.92530950	 82.61172800	 97.15930950
466	1	 94.87079350	 83.91341100	 94.79063050
467	1	 96.45121450	 84.73595200	 97.19410950
468	1	 97.54031550	 83.42698900	 94.19089250
469	1	100.41959650	 83.10629500	 94.40079850
470	1	 99.05101750	 84.22297700	 96.58971950
471	1	102.20450650	 83.35934800	 96.47772950
472	1	102.53960650	 85.30049600	 94.51788250
473	1	 99.21960550	 85.72202900	 94.52879550
474	1	103.52029650	 82.76156000	 94.24755750
475	1	105.15776650	 85.02719300	 94.49033150
476	1	 76.32211650	 90.13120900	 96.82267950
477	1	 76.24153150	 89.09882900	 94.43790650
478	1	 79.09527050	 89.70574700	 96.98375950
479	1	 77.29055650	 87.62155200	 96.66592950
480	1	 77.45124150	 86.53781000	 94.25274150
481	1	 79.23684650	 88.66933500	 94.44756150
482	1	 80.01532750	 87.34614700	 96.88706950
483	1	 81.90928750	 89.48328300	 97.14332950
484	1	 82.72146650	 86.57568900	 97.27279950
485	1	 82.08198250	 88.22523500	 94.70517050
486	1	 84.47483250	 88.88552500	 97.15103950
487	1	 85.09230850	 87.96325700	 94.58410150
488	1	 86.93421950	 89.84423300	 94.45632850
489	1	 85.49441050	 86.32637600	 97.20705950
490	1	 88.26018950	 87.26943100	 94.51282150
491	1	 87.17897950	 88.49844400	 97.11387950
492	1	 89.84822150	 88.32527100	 97.16988950
493	1	 89.77541050	 89.61776500	 94.61307550
494	1	 92.58716050	 89.36193800	 94.74851250
495	1	 90.79130050	 87.10011700	 94.61318250
496	1	 92.58587850	 87.67331500	 96.89295950
497	1	 93.61369850	 86.72254500	 94.66546050
498	1	 94.20058350	 90.22060100	 97.16051950
499	1	 96.99276550	 89.58389500	 97.26391950
500	1	 95.49247550	 88.89272800	 94.68935350
501	1	 96.48125750	 86.35265500	 94.35224250
502	1	 95.49921750	 87.19465300	 97.12770950
503	1	 98.26615950	 86.78667300	 96.98218950
504	1	 98.35680850	 88.33278000	 94.78811150
505	1	 99.94260650	 89.20862600	 96.67364950
506	1	102.77813650	 88.55731600	 96.52430950
507	1	101.33063650	 88.19804000	 94.28886050
508	1	100.92188650	 86.38572000	 96.62359950
509	1	105.33127650	 89.65412500	 96.10625950
510	1	103.90197650	 85.62595500	 96.80485950
511	1	106.31422650	 87.20581900	 95.78678950
512	1	104.20726650	 87.74520000	 94.41956350
513	1	104.97440650	 87.94363800	 98.09963950
514	1	 82.26796850	 80.15923700	 98.77993950
515	1	 84.82923550	 79.87288800	 98.88656950
516	1	 87.48820650	 79.65569900	 99.07814950
517	1	 89.16757350	 81.58133500	 99.41899950
518	1	 90.20623250	 79.10017500	 99.13458950
519	1	 93.03563450	 78.83606100	 98.91167950
520	1	 91.83787050	 81.28583300	 99.22702950
521	1	 95.67110650	 78.36968000	 98.85758950
522	1	 97.14664150	 80.55044700	 98.80930950
523	1	 94.50764050	 81.04071000	 99.15936950
524	1	 80.67765150	 82.66193400	 98.86614950
525	1	 79.54401750	 85.43252500	 99.10489950
526	1	 83.58279650	 82.33127300	 99.22100950
527	1	 82.30833350	 84.63425200	 99.22743950
528	1	 85.15904650	 84.58248600	 99.41666950
529	1	 87.93445650	 84.30038600	 99.23808950
530	1	 86.20263050	 82.18829600	 99.20812950
531	1	 93.42571350	 83.43439000	 99.49409950
532	1	 90.74801150	 83.65455500	 99.47856950
533	1	 92.42420250	 86.04646300	 99.18196950
534	1	 95.48903350	 85.82751900	 99.59715950
535	1	 98.41167550	 85.05042100	 99.16894950
536	1	 96.54421450	 83.13155000	 99.32752950
537	1	 99.07212050	 82.41555500	 98.79013950
538	1	101.17204650	 84.63146700	 98.62061950
539	1	 78.60047450	 87.96523400	 99.21106950
540	1	 83.19783750	 89.84416000	 99.45901950
541	1	 84.21886950	 87.46019600	 99.54169950
542	1	 81.31074250	 87.57773800	 99.28991950
543	1	 87.01745550	 86.91462600	 99.52378950
544	1	 88.41256950	 89.09701200	 99.53035950
545	1	 85.87758750	 89.80463800	 99.29849950
546	1	 89.78904250	 86.66534600	 99.32069950
547	1	 91.50938850	 88.71644500	 99.29153950
548	1	 94.30135750	 88.21950000	 99.50927950
549	1	 97.27031650	 87.69125600	 99.21090950
550	1	 98.82424650	 89.93662600	 99.41014950
551	1	101.69050650	 89.45466100	 98.80764950
552	1	 99.82879650	 87.32522800	 98.99972950
553	1	102.57243650	 86.89647700	 98.60816950
554	1	 73.40640850	 92.07031700	 81.06567750
555	1	 76.20558850	 91.36342100	 80.47570550
556	1	 75.18671150	 94.01810500	 80.71431450
557	1	 77.97623550	 94.10346200	 80.27803550
558	1	 78.85702250	 91.56959100	 80.45528150
559	1	 80.38033250	 93.85449900	 80.85961750
560	1	 81.27385150	 91.15218900	 80.62981550
561	1	 83.11441950	 93.34073600	 80.76890350
562	1	 84.07489050	 90.76605400	 80.56042450
563	1	 85.69108350	 92.93706200	 80.33225750
564	1	 86.82401150	 90.34793100	 80.68459350
565	1	 88.67625650	 92.31597900	 80.44248650
566	1	 91.58804450	 92.09202100	 80.42321350
567	1	 93.22100150	 94.29958000	 80.27906850
568	1	 94.45002950	 91.86525400	 80.39199050
569	1	 97.08408750	 91.30836400	 80.70794650
570	1	 96.31609050	 93.87850400	 80.69793150
571	1	100.00388650	 90.52056300	 80.54724050
572	1	101.61318650	 92.56048000	 80.46265350
573	1	 99.08449050	 93.18852600	 80.84382350
574	1	104.38199650	 92.15338300	 80.55987050
575	1	 76.92678850	 96.52179300	 80.58495850
576	1	 79.55301950	 96.44324300	 80.60302850
577	1	 78.50124850	 98.75508800	 80.63361550
578	1	 81.32537150	 98.67984500	 80.36597850
579	1	 83.78942750	 98.11502100	 80.30534650
580	1	 84.95231050	 95.49476200	 80.86338650
581	1	 82.24754250	 95.99029800	 80.68262850
582	1	 86.67006250	 97.78905900	 80.70871450
583	1	 87.62820550	 95.25745500	 80.51496950
584	1	 89.24409850	 97.33651100	 80.79934550
585	1	 90.41298750	 94.60698800	 80.58072250
586	1	 91.96732750	 96.71072700	 80.53289650
587	1	 95.12416150	 96.50937200	 80.39681550
588	1	 98.03958950	 95.73765400	 80.56176650
589	1	 96.74619550	 98.53160300	 80.54862350
590	1	 93.92906150	 99.06826400	 80.21663150
591	1	100.77617650	 95.52625300	 80.51956950
592	1	102.19460650	 97.58850800	 80.63069550
593	1	 99.49869950	 98.13856300	 80.54568550
594	1	103.49036650	 95.11158100	 80.53143650
595	1	 80.02962850	101.02259400	 81.02346250
596	1	 82.88996950	101.00810400	 80.55354050
597	1	 84.91972650	102.96931400	 80.75048150
598	1	 85.71373250	100.32086000	 80.45246550
599	1	 88.70221550	100.07473400	 80.63463650
600	1	 87.54089550	102.45408400	 80.18408050
601	1	 90.79606950	102.09727400	 80.44699150
602	1	 91.23822950	 99.31184100	 80.67465150
603	1	 93.34135650	101.44218400	 80.45156550
604	1	 95.99797050	101.11259400	 80.56408050
605	1	 98.59252750	101.03886400	 80.68833250
606	1	101.12537650	100.01792900	 80.70224050
607	1	100.46297650	102.91565400	 80.97414050
608	1	 82.15817250	103.39875400	 80.87939850
609	1	 86.59448550	104.88718400	 80.69336450
610	1	 89.35996150	104.58782400	 80.57166550
611	1	 92.05325950	104.28473400	 80.44741350
612	1	 94.92567950	103.63760400	 80.72157950
613	1	 97.61350150	103.37569400	 80.91007150
614	1	 74.50414150	 93.21379200	 83.27443050
615	1	 74.11568050	 91.06427900	 85.03583950
616	1	 76.31179450	 93.81986600	 85.16874550
617	1	 73.49299750	 93.82042700	 85.46415750
618	1	 75.37220750	 90.29488700	 82.83880550
619	1	 76.77949650	 91.15271700	 84.97553450
620	1	 77.09376450	 92.68350800	 82.61176850
621	1	 79.77494050	 92.09289600	 82.94853050
622	1	 79.42826450	 90.55697100	 85.20636650
623	1	 78.90574050	 93.08896600	 85.17864450
624	1	 82.70384750	 91.64721100	 82.93359950
625	1	 84.74846850	 93.98707300	 83.06696950
626	1	 81.77348750	 94.16562200	 82.83670250
627	1	 84.30340350	 92.31517200	 85.26420650
628	1	 85.44259250	 91.41065900	 82.88196950
629	1	 88.61086550	 90.86655900	 82.85091550
630	1	 87.34106150	 93.52327900	 82.47203750
631	1	 88.83158750	 93.98062200	 85.10194350
632	1	 87.34398950	 91.82157800	 85.00506150
633	1	 90.38478850	 93.28252500	 82.78635750
634	1	 93.04923250	 92.65228500	 82.83785050
635	1	 91.48781950	 90.28715100	 83.07705950
636	1	 91.96664450	 93.64299900	 85.23569950
637	1	 90.08867750	 91.46431600	 85.18994350
638	1	 95.92474050	 92.25662600	 82.91576750
639	1	 97.73714750	 92.70997300	 85.08050250
640	1	 95.68472750	 90.67087900	 85.28348250
641	1	 97.96083650	 94.41773900	 83.00668650
642	1	 98.95613750	 91.57698900	 82.97806250
643	1	101.68627650	 91.29811600	 82.69140050
644	1	100.66811650	 92.01409000	 85.26379950
645	1	100.62781650	 93.79381900	 82.85646550
646	1	102.38009650	 94.62089500	 85.25556550
647	1	104.35671650	 90.69508100	 82.86462450
648	1	106.94115650	 90.47290100	 83.42157650
649	1	105.64036650	 92.85883500	 82.91070250
650	1	103.18449650	 93.58434500	 82.86714750
651	1	105.03807650	 94.08633100	 85.34193350
652	1	 76.10155350	 95.27862500	 82.89532650
653	1	 78.90965550	 94.83906400	 82.86380250
654	1	 77.88163550	 97.55229900	 82.82812550
655	1	 80.69824850	 96.93425900	 82.90350150
656	1	 79.46365950	 98.28054400	 85.18707250
657	1	 80.26589350	 95.63684100	 85.36472150
658	1	 83.48960150	 96.69384900	 83.03061850
659	1	 84.85052250	 97.18911800	 85.38593350
660	1	 85.41239450	 98.93343600	 82.76693350
661	1	 86.45106450	 96.44532900	 82.94427550
662	1	 89.06882150	 95.57083100	 83.07262750
663	1	 88.18350350	 98.52558300	 83.04154750
664	1	 87.79096650	 96.88448000	 85.26250250
665	1	 90.75928250	 97.93291700	 82.92741850